Full Core-Shell model for CaO3. Ca-CaShell, O-Oshell

     8  atoms
     4  bonds
     0  angles
     0  dihedrals
     0  impropers

     4  atom types
     2  bond types

  0.0 24.95 xlo xhi
  0.0 24.95 ylo yhi
  0.0 17.0615 zlo zhi

Masses

1 40.078	
2 0.0001
3 14.39946
4 1.59994

Atoms # full

1 1 1 2.1 0.0 0.0 0.0
2 1 2 -0.1 0.0 0.0 0.0
3 2 3 1.018487 1.28642 0.0 4.26538
4 2 4 -2.133000 1.28642 0.0 4.26538
5 3 3 1.018487 -0.64321 1.11407 4.26538
6 3 4 -2.133000 -0.64321 1.11407 4.26538
7 4 3 1.018487 1.85179 3.20739 4.26538
8 4 4 -2.133000 1.85179 3.20739 4.26538

Bonds

1 1 3 4
2 1 5 6
3 1 7 8
4 2 1 2


CS-Info

3 1
4 1
5 5
6 5
7 2
8 2
1 3
2 3

